
   8000 atoms
1 atom types
-0.5 53.79 xlo xhi
-0.5 53.79 ylo yhi
-0.5 53.79 zlo zhi

Atoms

1000 1 0 0 0 
5000 1 1.35725 1.35725 1.35725 
999 1 5.429 0 0 
4999 1 6.78625 1.35725 1.35725 
998 1 10.858 0 0 
4998 1 12.2152 1.35725 1.35725 
997 1 16.287 0 0 
4997 1 17.6442 1.35725 1.35725 
996 1 21.716 0 0 
4996 1 23.0733 1.35725 1.35725 
991 1 27.145 0 0 
4991 1 28.5023 1.35725 1.35725 
992 1 32.574 0 0 
4992 1 33.9312 1.35725 1.35725 
993 1 38.003 0 0 
4993 1 39.3603 1.35725 1.35725 
994 1 43.432 0 0 
4994 1 44.7893 1.35725 1.35725 
995 1 48.861 0 0 
4995 1 50.2182 1.35725 1.35725 
990 1 0 5.429 0 
989 1 5.429 5.429 0 
4000 1 2.7145 2.7145 0 
8000 1 4.07175 4.07175 1.35725 
3999 1 8.1435 2.7145 0 
988 1 10.858 5.429 0 
7999 1 9.50075 4.07175 1.35725 
3998 1 13.5725 2.7145 0 
987 1 16.287 5.429 0 
7998 1 14.9298 4.07175 1.35725 
3997 1 19.0015 2.7145 0 
7997 1 20.3588 4.07175 1.35725 
986 1 21.716 5.429 0 
3996 1 24.4305 2.7145 0 
7996 1 25.7877 4.07175 1.35725 
981 1 27.145 5.429 0 
982 1 32.574 5.429 0 
3991 1 29.8595 2.7145 0 
7991 1 31.2168 4.07175 1.35725 
3992 1 35.2885 2.7145 0 
983 1 38.003 5.429 0 
7992 1 36.6457 4.07175 1.35725 
3993 1 40.7175 2.7145 0 
984 1 43.432 5.429 0 
7993 1 42.0748 4.07175 1.35725 
3994 1 46.1465 2.7145 0 
7994 1 47.5037 4.07175 1.35725 
985 1 48.861 5.429 0 
3995 1 51.5755 2.7145 0 
7995 1 52.9327 4.07175 1.35725 
4990 1 1.35725 6.78625 1.35725 
3990 1 2.7145 8.1435 0 
3989 1 8.1435 8.1435 0 
4989 1 6.78625 6.78625 1.35725 
3988 1 13.5725 8.1435 0 
4988 1 12.2152 6.78625 1.35725 
3987 1 19.0015 8.1435 0 
4987 1 17.6442 6.78625 1.35725 
4986 1 23.0733 6.78625 1.35725 
3986 1 24.4305 8.1435 0 
4981 1 28.5023 6.78625 1.35725 
3981 1 29.8595 8.1435 0 
3982 1 35.2885 8.1435 0 
4982 1 33.9312 6.78625 1.35725 
3983 1 40.7175 8.1435 0 
4983 1 39.3603 6.78625 1.35725 
3984 1 46.1465 8.1435 0 
4984 1 44.7893 6.78625 1.35725 
4985 1 50.2182 6.78625 1.35725 
3985 1 51.5755 8.1435 0 
980 1 0 10.858 0 
979 1 5.429 10.858 0 
7990 1 4.07175 9.50075 1.35725 
978 1 10.858 10.858 0 
7989 1 9.50075 9.50075 1.35725 
977 1 16.287 10.858 0 
7988 1 14.9298 9.50075 1.35725 
7987 1 20.3588 9.50075 1.35725 
976 1 21.716 10.858 0 
7986 1 25.7877 9.50075 1.35725 
971 1 27.145 10.858 0 
972 1 32.574 10.858 0 
7981 1 31.2168 9.50075 1.35725 
973 1 38.003 10.858 0 
7982 1 36.6457 9.50075 1.35725 
974 1 43.432 10.858 0 
7983 1 42.0748 9.50075 1.35725 
7984 1 47.5037 9.50075 1.35725 
975 1 48.861 10.858 0 
7985 1 52.9327 9.50075 1.35725 
4980 1 1.35725 12.2152 1.35725 
3980 1 2.7145 13.5725 0 
3979 1 8.1435 13.5725 0 
4979 1 6.78625 12.2152 1.35725 
3978 1 13.5725 13.5725 0 
4978 1 12.2152 12.2152 1.35725 
3977 1 19.0015 13.5725 0 
4977 1 17.6442 12.2152 1.35725 
4976 1 23.0733 12.2152 1.35725 
3976 1 24.4305 13.5725 0 
4971 1 28.5023 12.2152 1.35725 
3971 1 29.8595 13.5725 0 
3972 1 35.2885 13.5725 0 
4972 1 33.9312 12.2152 1.35725 
3973 1 40.7175 13.5725 0 
4973 1 39.3603 12.2152 1.35725 
3974 1 46.1465 13.5725 0 
4974 1 44.7893 12.2152 1.35725 
4975 1 50.2182 12.2152 1.35725 
3975 1 51.5755 13.5725 0 
970 1 0 16.287 0 
969 1 5.429 16.287 0 
7980 1 4.07175 14.9298 1.35725 
968 1 10.858 16.287 0 
7979 1 9.50075 14.9298 1.35725 
967 1 16.287 16.287 0 
7978 1 14.9298 14.9298 1.35725 
7977 1 20.3588 14.9298 1.35725 
966 1 21.716 16.287 0 
7976 1 25.7877 14.9298 1.35725 
961 1 27.145 16.287 0 
962 1 32.574 16.287 0 
7971 1 31.2168 14.9298 1.35725 
963 1 38.003 16.287 0 
7972 1 36.6457 14.9298 1.35725 
964 1 43.432 16.287 0 
7973 1 42.0748 14.9298 1.35725 
7974 1 47.5037 14.9298 1.35725 
965 1 48.861 16.287 0 
7975 1 52.9327 14.9298 1.35725 
4970 1 1.35725 17.6442 1.35725 
3970 1 2.7145 19.0015 0 
7970 1 4.07175 20.3588 1.35725 
3969 1 8.1435 19.0015 0 
4969 1 6.78625 17.6442 1.35725 
7969 1 9.50075 20.3588 1.35725 
3968 1 13.5725 19.0015 0 
4968 1 12.2152 17.6442 1.35725 
7968 1 14.9298 20.3588 1.35725 
3967 1 19.0015 19.0015 0 
4967 1 17.6442 17.6442 1.35725 
7967 1 20.3588 20.3588 1.35725 
4966 1 23.0733 17.6442 1.35725 
3966 1 24.4305 19.0015 0 
7966 1 25.7877 20.3588 1.35725 
4961 1 28.5023 17.6442 1.35725 
3961 1 29.8595 19.0015 0 
7961 1 31.2168 20.3588 1.35725 
3962 1 35.2885 19.0015 0 
4962 1 33.9312 17.6442 1.35725 
7962 1 36.6457 20.3588 1.35725 
3963 1 40.7175 19.0015 0 
4963 1 39.3603 17.6442 1.35725 
7963 1 42.0748 20.3588 1.35725 
3964 1 46.1465 19.0015 0 
4964 1 44.7893 17.6442 1.35725 
7964 1 47.5037 20.3588 1.35725 
4965 1 50.2182 17.6442 1.35725 
3965 1 51.5755 19.0015 0 
7965 1 52.9327 20.3588 1.35725 
960 1 0 21.716 0 
4960 1 1.35725 23.0733 1.35725 
959 1 5.429 21.716 0 
4959 1 6.78625 23.0733 1.35725 
958 1 10.858 21.716 0 
4958 1 12.2152 23.0733 1.35725 
957 1 16.287 21.716 0 
4957 1 17.6442 23.0733 1.35725 
956 1 21.716 21.716 0 
4956 1 23.0733 23.0733 1.35725 
951 1 27.145 21.716 0 
4951 1 28.5023 23.0733 1.35725 
952 1 32.574 21.716 0 
4952 1 33.9312 23.0733 1.35725 
953 1 38.003 21.716 0 
4953 1 39.3603 23.0733 1.35725 
954 1 43.432 21.716 0 
4954 1 44.7893 23.0733 1.35725 
955 1 48.861 21.716 0 
4955 1 50.2182 23.0733 1.35725 
3960 1 2.7145 24.4305 0 
7960 1 4.07175 25.7877 1.35725 
3959 1 8.1435 24.4305 0 
7959 1 9.50075 25.7877 1.35725 
3958 1 13.5725 24.4305 0 
7958 1 14.9298 25.7877 1.35725 
3957 1 19.0015 24.4305 0 
7957 1 20.3588 25.7877 1.35725 
3956 1 24.4305 24.4305 0 
7956 1 25.7877 25.7877 1.35725 
3951 1 29.8595 24.4305 0 
7951 1 31.2168 25.7877 1.35725 
3952 1 35.2885 24.4305 0 
7952 1 36.6457 25.7877 1.35725 
3953 1 40.7175 24.4305 0 
7953 1 42.0748 25.7877 1.35725 
3954 1 46.1465 24.4305 0 
7954 1 47.5037 25.7877 1.35725 
3955 1 51.5755 24.4305 0 
7955 1 52.9327 25.7877 1.35725 
910 1 0 27.145 0 
4910 1 1.35725 28.5023 1.35725 
909 1 5.429 27.145 0 
4909 1 6.78625 28.5023 1.35725 
908 1 10.858 27.145 0 
4908 1 12.2152 28.5023 1.35725 
907 1 16.287 27.145 0 
4907 1 17.6442 28.5023 1.35725 
906 1 21.716 27.145 0 
4906 1 23.0733 28.5023 1.35725 
901 1 27.145 27.145 0 
4901 1 28.5023 28.5023 1.35725 
902 1 32.574 27.145 0 
4902 1 33.9312 28.5023 1.35725 
903 1 38.003 27.145 0 
4903 1 39.3603 28.5023 1.35725 
904 1 43.432 27.145 0 
4904 1 44.7893 28.5023 1.35725 
905 1 48.861 27.145 0 
4905 1 50.2182 28.5023 1.35725 
920 1 0 32.574 0 
919 1 5.429 32.574 0 
3910 1 2.7145 29.8595 0 
7910 1 4.07175 31.2168 1.35725 
3909 1 8.1435 29.8595 0 
918 1 10.858 32.574 0 
7909 1 9.50075 31.2168 1.35725 
3908 1 13.5725 29.8595 0 
917 1 16.287 32.574 0 
7908 1 14.9298 31.2168 1.35725 
3907 1 19.0015 29.8595 0 
7907 1 20.3588 31.2168 1.35725 
916 1 21.716 32.574 0 
3906 1 24.4305 29.8595 0 
7906 1 25.7877 31.2168 1.35725 
911 1 27.145 32.574 0 
912 1 32.574 32.574 0 
3901 1 29.8595 29.8595 0 
7901 1 31.2168 31.2168 1.35725 
3902 1 35.2885 29.8595 0 
913 1 38.003 32.574 0 
7902 1 36.6457 31.2168 1.35725 
3903 1 40.7175 29.8595 0 
914 1 43.432 32.574 0 
7903 1 42.0748 31.2168 1.35725 
3904 1 46.1465 29.8595 0 
7904 1 47.5037 31.2168 1.35725 
915 1 48.861 32.574 0 
3905 1 51.5755 29.8595 0 
7905 1 52.9327 31.2168 1.35725 
4920 1 1.35725 33.9312 1.35725 
3920 1 2.7145 35.2885 0 
3919 1 8.1435 35.2885 0 
4919 1 6.78625 33.9312 1.35725 
3918 1 13.5725 35.2885 0 
4918 1 12.2152 33.9312 1.35725 
3917 1 19.0015 35.2885 0 
4917 1 17.6442 33.9312 1.35725 
4916 1 23.0733 33.9312 1.35725 
3916 1 24.4305 35.2885 0 
4911 1 28.5023 33.9312 1.35725 
3911 1 29.8595 35.2885 0 
3912 1 35.2885 35.2885 0 
4912 1 33.9312 33.9312 1.35725 
3913 1 40.7175 35.2885 0 
4913 1 39.3603 33.9312 1.35725 
3914 1 46.1465 35.2885 0 
4914 1 44.7893 33.9312 1.35725 
4915 1 50.2182 33.9312 1.35725 
3915 1 51.5755 35.2885 0 
930 1 0 38.003 0 
929 1 5.429 38.003 0 
7920 1 4.07175 36.6457 1.35725 
928 1 10.858 38.003 0 
7919 1 9.50075 36.6457 1.35725 
927 1 16.287 38.003 0 
7918 1 14.9298 36.6457 1.35725 
7917 1 20.3588 36.6457 1.35725 
926 1 21.716 38.003 0 
7916 1 25.7877 36.6457 1.35725 
921 1 27.145 38.003 0 
922 1 32.574 38.003 0 
7911 1 31.2168 36.6457 1.35725 
923 1 38.003 38.003 0 
7912 1 36.6457 36.6457 1.35725 
924 1 43.432 38.003 0 
7913 1 42.0748 36.6457 1.35725 
7914 1 47.5037 36.6457 1.35725 
925 1 48.861 38.003 0 
7915 1 52.9327 36.6457 1.35725 
4930 1 1.35725 39.3603 1.35725 
3930 1 2.7145 40.7175 0 
3929 1 8.1435 40.7175 0 
4929 1 6.78625 39.3603 1.35725 
3928 1 13.5725 40.7175 0 
4928 1 12.2152 39.3603 1.35725 
3927 1 19.0015 40.7175 0 
4927 1 17.6442 39.3603 1.35725 
4926 1 23.0733 39.3603 1.35725 
3926 1 24.4305 40.7175 0 
4921 1 28.5023 39.3603 1.35725 
3921 1 29.8595 40.7175 0 
3922 1 35.2885 40.7175 0 
4922 1 33.9312 39.3603 1.35725 
3923 1 40.7175 40.7175 0 
4923 1 39.3603 39.3603 1.35725 
3924 1 46.1465 40.7175 0 
4924 1 44.7893 39.3603 1.35725 
4925 1 50.2182 39.3603 1.35725 
3925 1 51.5755 40.7175 0 
940 1 0 43.432 0 
939 1 5.429 43.432 0 
7930 1 4.07175 42.0748 1.35725 
938 1 10.858 43.432 0 
7929 1 9.50075 42.0748 1.35725 
937 1 16.287 43.432 0 
7928 1 14.9298 42.0748 1.35725 
7927 1 20.3588 42.0748 1.35725 
936 1 21.716 43.432 0 
7926 1 25.7877 42.0748 1.35725 
931 1 27.145 43.432 0 
932 1 32.574 43.432 0 
7921 1 31.2168 42.0748 1.35725 
933 1 38.003 43.432 0 
7922 1 36.6457 42.0748 1.35725 
934 1 43.432 43.432 0 
7923 1 42.0748 42.0748 1.35725 
7924 1 47.5037 42.0748 1.35725 
935 1 48.861 43.432 0 
7925 1 52.9327 42.0748 1.35725 
4940 1 1.35725 44.7893 1.35725 
3940 1 2.7145 46.1465 0 
7940 1 4.07175 47.5037 1.35725 
3939 1 8.1435 46.1465 0 
4939 1 6.78625 44.7893 1.35725 
7939 1 9.50075 47.5037 1.35725 
3938 1 13.5725 46.1465 0 
4938 1 12.2152 44.7893 1.35725 
7938 1 14.9298 47.5037 1.35725 
3937 1 19.0015 46.1465 0 
4937 1 17.6442 44.7893 1.35725 
7937 1 20.3588 47.5037 1.35725 
4936 1 23.0733 44.7893 1.35725 
3936 1 24.4305 46.1465 0 
7936 1 25.7877 47.5037 1.35725 
4931 1 28.5023 44.7893 1.35725 
3931 1 29.8595 46.1465 0 
7931 1 31.2168 47.5037 1.35725 
3932 1 35.2885 46.1465 0 
4932 1 33.9312 44.7893 1.35725 
7932 1 36.6457 47.5037 1.35725 
3933 1 40.7175 46.1465 0 
4933 1 39.3603 44.7893 1.35725 
7933 1 42.0748 47.5037 1.35725 
3934 1 46.1465 46.1465 0 
4934 1 44.7893 44.7893 1.35725 
7934 1 47.5037 47.5037 1.35725 
4935 1 50.2182 44.7893 1.35725 
3935 1 51.5755 46.1465 0 
7935 1 52.9327 47.5037 1.35725 
950 1 0 48.861 0 
4950 1 1.35725 50.2182 1.35725 
949 1 5.429 48.861 0 
4949 1 6.78625 50.2182 1.35725 
948 1 10.858 48.861 0 
4948 1 12.2152 50.2182 1.35725 
947 1 16.287 48.861 0 
4947 1 17.6442 50.2182 1.35725 
946 1 21.716 48.861 0 
4946 1 23.0733 50.2182 1.35725 
941 1 27.145 48.861 0 
4941 1 28.5023 50.2182 1.35725 
942 1 32.574 48.861 0 
4942 1 33.9312 50.2182 1.35725 
943 1 38.003 48.861 0 
4943 1 39.3603 50.2182 1.35725 
944 1 43.432 48.861 0 
4944 1 44.7893 50.2182 1.35725 
945 1 48.861 48.861 0 
4945 1 50.2182 50.2182 1.35725 
3950 1 2.7145 51.5755 0 
7950 1 4.07175 52.9327 1.35725 
3949 1 8.1435 51.5755 0 
7949 1 9.50075 52.9327 1.35725 
3948 1 13.5725 51.5755 0 
7948 1 14.9298 52.9327 1.35725 
3947 1 19.0015 51.5755 0 
7947 1 20.3588 52.9327 1.35725 
3946 1 24.4305 51.5755 0 
7946 1 25.7877 52.9327 1.35725 
3941 1 29.8595 51.5755 0 
7941 1 31.2168 52.9327 1.35725 
3942 1 35.2885 51.5755 0 
7942 1 36.6457 52.9327 1.35725 
3943 1 40.7175 51.5755 0 
7943 1 42.0748 52.9327 1.35725 
3944 1 46.1465 51.5755 0 
7944 1 47.5037 52.9327 1.35725 
3945 1 51.5755 51.5755 0 
7945 1 52.9327 52.9327 1.35725 
900 1 0 0 5.429 
899 1 5.429 0 5.429 
3000 1 2.7145 0 2.7145 
7000 1 4.07175 1.35725 4.07175 
2999 1 8.1435 0 2.7145 
898 1 10.858 0 5.429 
6999 1 9.50075 1.35725 4.07175 
2998 1 13.5725 0 2.7145 
897 1 16.287 0 5.429 
6998 1 14.9298 1.35725 4.07175 
2997 1 19.0015 0 2.7145 
6997 1 20.3588 1.35725 4.07175 
896 1 21.716 0 5.429 
2996 1 24.4305 0 2.7145 
6996 1 25.7877 1.35725 4.07175 
891 1 27.145 0 5.429 
892 1 32.574 0 5.429 
2991 1 29.8595 0 2.7145 
6991 1 31.2168 1.35725 4.07175 
2992 1 35.2885 0 2.7145 
893 1 38.003 0 5.429 
6992 1 36.6457 1.35725 4.07175 
2993 1 40.7175 0 2.7145 
894 1 43.432 0 5.429 
6993 1 42.0748 1.35725 4.07175 
2994 1 46.1465 0 2.7145 
6994 1 47.5037 1.35725 4.07175 
895 1 48.861 0 5.429 
2995 1 51.5755 0 2.7145 
6995 1 52.9327 1.35725 4.07175 
890 1 0 5.429 5.429 
2000 1 0 2.7145 2.7145 
6000 1 1.35725 4.07175 4.07175 
889 1 5.429 5.429 5.429 
1999 1 5.429 2.7145 2.7145 
2990 1 2.7145 5.429 2.7145 
3900 1 2.7145 2.7145 5.429 
2989 1 8.1435 5.429 2.7145 
3899 1 8.1435 2.7145 5.429 
5999 1 6.78625 4.07175 4.07175 
888 1 10.858 5.429 5.429 
1998 1 10.858 2.7145 2.7145 
2988 1 13.5725 5.429 2.7145 
3898 1 13.5725 2.7145 5.429 
5998 1 12.2152 4.07175 4.07175 
887 1 16.287 5.429 5.429 
1997 1 16.287 2.7145 2.7145 
2987 1 19.0015 5.429 2.7145 
3897 1 19.0015 2.7145 5.429 
5997 1 17.6442 4.07175 4.07175 
886 1 21.716 5.429 5.429 
1996 1 21.716 2.7145 2.7145 
5996 1 23.0733 4.07175 4.07175 
2986 1 24.4305 5.429 2.7145 
3896 1 24.4305 2.7145 5.429 
881 1 27.145 5.429 5.429 
1991 1 27.145 2.7145 2.7145 
5991 1 28.5023 4.07175 4.07175 
882 1 32.574 5.429 5.429 
1992 1 32.574 2.7145 2.7145 
2981 1 29.8595 5.429 2.7145 
3891 1 29.8595 2.7145 5.429 
2982 1 35.2885 5.429 2.7145 
3892 1 35.2885 2.7145 5.429 
5992 1 33.9312 4.07175 4.07175 
883 1 38.003 5.429 5.429 
1993 1 38.003 2.7145 2.7145 
2983 1 40.7175 5.429 2.7145 
3893 1 40.7175 2.7145 5.429 
5993 1 39.3603 4.07175 4.07175 
884 1 43.432 5.429 5.429 
1994 1 43.432 2.7145 2.7145 
2984 1 46.1465 5.429 2.7145 
3894 1 46.1465 2.7145 5.429 
5994 1 44.7893 4.07175 4.07175 
885 1 48.861 5.429 5.429 
1995 1 48.861 2.7145 2.7145 
5995 1 50.2182 4.07175 4.07175 
2985 1 51.5755 5.429 2.7145 
3895 1 51.5755 2.7145 5.429 
1990 1 0 8.1435 2.7145 
1989 1 5.429 8.1435 2.7145 
3890 1 2.7145 8.1435 5.429 
6990 1 4.07175 6.78625 4.07175 
3889 1 8.1435 8.1435 5.429 
1988 1 10.858 8.1435 2.7145 
6989 1 9.50075 6.78625 4.07175 
3888 1 13.5725 8.1435 5.429 
1987 1 16.287 8.1435 2.7145 
6988 1 14.9298 6.78625 4.07175 
3887 1 19.0015 8.1435 5.429 
6987 1 20.3588 6.78625 4.07175 
1986 1 21.716 8.1435 2.7145 
3886 1 24.4305 8.1435 5.429 
6986 1 25.7877 6.78625 4.07175 
1981 1 27.145 8.1435 2.7145 
1982 1 32.574 8.1435 2.7145 
3881 1 29.8595 8.1435 5.429 
6981 1 31.2168 6.78625 4.07175 
3882 1 35.2885 8.1435 5.429 
1983 1 38.003 8.1435 2.7145 
6982 1 36.6457 6.78625 4.07175 
3883 1 40.7175 8.1435 5.429 
1984 1 43.432 8.1435 2.7145 
6983 1 42.0748 6.78625 4.07175 
3884 1 46.1465 8.1435 5.429 
6984 1 47.5037 6.78625 4.07175 
1985 1 48.861 8.1435 2.7145 
3885 1 51.5755 8.1435 5.429 
6985 1 52.9327 6.78625 4.07175 
880 1 0 10.858 5.429 
5990 1 1.35725 9.50075 4.07175 
879 1 5.429 10.858 5.429 
2980 1 2.7145 10.858 2.7145 
2979 1 8.1435 10.858 2.7145 
5989 1 6.78625 9.50075 4.07175 
878 1 10.858 10.858 5.429 
2978 1 13.5725 10.858 2.7145 
5988 1 12.2152 9.50075 4.07175 
877 1 16.287 10.858 5.429 
2977 1 19.0015 10.858 2.7145 
5987 1 17.6442 9.50075 4.07175 
876 1 21.716 10.858 5.429 
5986 1 23.0733 9.50075 4.07175 
2976 1 24.4305 10.858 2.7145 
871 1 27.145 10.858 5.429 
5981 1 28.5023 9.50075 4.07175 
872 1 32.574 10.858 5.429 
2971 1 29.8595 10.858 2.7145 
2972 1 35.2885 10.858 2.7145 
5982 1 33.9312 9.50075 4.07175 
873 1 38.003 10.858 5.429 
2973 1 40.7175 10.858 2.7145 
5983 1 39.3603 9.50075 4.07175 
874 1 43.432 10.858 5.429 
2974 1 46.1465 10.858 2.7145 
5984 1 44.7893 9.50075 4.07175 
875 1 48.861 10.858 5.429 
5985 1 50.2182 9.50075 4.07175 
2975 1 51.5755 10.858 2.7145 
1980 1 0 13.5725 2.7145 
1979 1 5.429 13.5725 2.7145 
3880 1 2.7145 13.5725 5.429 
6980 1 4.07175 12.2152 4.07175 
3879 1 8.1435 13.5725 5.429 
1978 1 10.858 13.5725 2.7145 
6979 1 9.50075 12.2152 4.07175 
3878 1 13.5725 13.5725 5.429 
1977 1 16.287 13.5725 2.7145 
6978 1 14.9298 12.2152 4.07175 
3877 1 19.0015 13.5725 5.429 
6977 1 20.3588 12.2152 4.07175 
1976 1 21.716 13.5725 2.7145 
3876 1 24.4305 13.5725 5.429 
6976 1 25.7877 12.2152 4.07175 
1971 1 27.145 13.5725 2.7145 
1972 1 32.574 13.5725 2.7145 
3871 1 29.8595 13.5725 5.429 
6971 1 31.2168 12.2152 4.07175 
3872 1 35.2885 13.5725 5.429 
1973 1 38.003 13.5725 2.7145 
6972 1 36.6457 12.2152 4.07175 
3873 1 40.7175 13.5725 5.429 
1974 1 43.432 13.5725 2.7145 
6973 1 42.0748 12.2152 4.07175 
3874 1 46.1465 13.5725 5.429 
6974 1 47.5037 12.2152 4.07175 
1975 1 48.861 13.5725 2.7145 
3875 1 51.5755 13.5725 5.429 
6975 1 52.9327 12.2152 4.07175 
870 1 0 16.287 5.429 
5980 1 1.35725 14.9298 4.07175 
869 1 5.429 16.287 5.429 
2970 1 2.7145 16.287 2.7145 
2969 1 8.1435 16.287 2.7145 
5979 1 6.78625 14.9298 4.07175 
868 1 10.858 16.287 5.429 
2968 1 13.5725 16.287 2.7145 
5978 1 12.2152 14.9298 4.07175 
867 1 16.287 16.287 5.429 
2967 1 19.0015 16.287 2.7145 
5977 1 17.6442 14.9298 4.07175 
866 1 21.716 16.287 5.429 
5976 1 23.0733 14.9298 4.07175 
2966 1 24.4305 16.287 2.7145 
861 1 27.145 16.287 5.429 
5971 1 28.5023 14.9298 4.07175 
862 1 32.574 16.287 5.429 
2961 1 29.8595 16.287 2.7145 
2962 1 35.2885 16.287 2.7145 
5972 1 33.9312 14.9298 4.07175 
863 1 38.003 16.287 5.429 
2963 1 40.7175 16.287 2.7145 
5973 1 39.3603 14.9298 4.07175 
864 1 43.432 16.287 5.429 
2964 1 46.1465 16.287 2.7145 
5974 1 44.7893 14.9298 4.07175 
865 1 48.861 16.287 5.429 
5975 1 50.2182 14.9298 4.07175 
2965 1 51.5755 16.287 2.7145 
1970 1 0 19.0015 2.7145 
5970 1 1.35725 20.3588 4.07175 
1969 1 5.429 19.0015 2.7145 
3870 1 2.7145 19.0015 5.429 
6970 1 4.07175 17.6442 4.07175 
3869 1 8.1435 19.0015 5.429 
5969 1 6.78625 20.3588 4.07175 
1968 1 10.858 19.0015 2.7145 
6969 1 9.50075 17.6442 4.07175 
3868 1 13.5725 19.0015 5.429 
5968 1 12.2152 20.3588 4.07175 
1967 1 16.287 19.0015 2.7145 
6968 1 14.9298 17.6442 4.07175 
3867 1 19.0015 19.0015 5.429 
5967 1 17.6442 20.3588 4.07175 
6967 1 20.3588 17.6442 4.07175 
1966 1 21.716 19.0015 2.7145 
5966 1 23.0733 20.3588 4.07175 
3866 1 24.4305 19.0015 5.429 
6966 1 25.7877 17.6442 4.07175 
1961 1 27.145 19.0015 2.7145 
5961 1 28.5023 20.3588 4.07175 
1962 1 32.574 19.0015 2.7145 
3861 1 29.8595 19.0015 5.429 
6961 1 31.2168 17.6442 4.07175 
3862 1 35.2885 19.0015 5.429 
5962 1 33.9312 20.3588 4.07175 
1963 1 38.003 19.0015 2.7145 
6962 1 36.6457 17.6442 4.07175 
3863 1 40.7175 19.0015 5.429 
5963 1 39.3603 20.3588 4.07175 
1964 1 43.432 19.0015 2.7145 
6963 1 42.0748 17.6442 4.07175 
3864 1 46.1465 19.0015 5.429 
5964 1 44.7893 20.3588 4.07175 
6964 1 47.5037 17.6442 4.07175 
1965 1 48.861 19.0015 2.7145 
5965 1 50.2182 20.3588 4.07175 
3865 1 51.5755 19.0015 5.429 
6965 1 52.9327 17.6442 4.07175 
860 1 0 21.716 5.429 
859 1 5.429 21.716 5.429 
2960 1 2.7145 21.716 2.7145 
6960 1 4.07175 23.0733 4.07175 
2959 1 8.1435 21.716 2.7145 
858 1 10.858 21.716 5.429 
6959 1 9.50075 23.0733 4.07175 
2958 1 13.5725 21.716 2.7145 
857 1 16.287 21.716 5.429 
6958 1 14.9298 23.0733 4.07175 
2957 1 19.0015 21.716 2.7145 
6957 1 20.3588 23.0733 4.07175 
856 1 21.716 21.716 5.429 
2956 1 24.4305 21.716 2.7145 
6956 1 25.7877 23.0733 4.07175 
851 1 27.145 21.716 5.429 
852 1 32.574 21.716 5.429 
2951 1 29.8595 21.716 2.7145 
6951 1 31.2168 23.0733 4.07175 
2952 1 35.2885 21.716 2.7145 
853 1 38.003 21.716 5.429 
6952 1 36.6457 23.0733 4.07175 
2953 1 40.7175 21.716 2.7145 
854 1 43.432 21.716 5.429 
6953 1 42.0748 23.0733 4.07175 
2954 1 46.1465 21.716 2.7145 
6954 1 47.5037 23.0733 4.07175 
855 1 48.861 21.716 5.429 
2955 1 51.5755 21.716 2.7145 
6955 1 52.9327 23.0733 4.07175 
1960 1 0 24.4305 2.7145 
5960 1 1.35725 25.7877 4.07175 
1959 1 5.429 24.4305 2.7145 
3860 1 2.7145 24.4305 5.429 
3859 1 8.1435 24.4305 5.429 
5959 1 6.78625 25.7877 4.07175 
1958 1 10.858 24.4305 2.7145 
3858 1 13.5725 24.4305 5.429 
5958 1 12.2152 25.7877 4.07175 
1957 1 16.287 24.4305 2.7145 
3857 1 19.0015 24.4305 5.429 
5957 1 17.6442 25.7877 4.07175 
1956 1 21.716 24.4305 2.7145 
5956 1 23.0733 25.7877 4.07175 
3856 1 24.4305 24.4305 5.429 
1951 1 27.145 24.4305 2.7145 
5951 1 28.5023 25.7877 4.07175 
1952 1 32.574 24.4305 2.7145 
3851 1 29.8595 24.4305 5.429 
3852 1 35.2885 24.4305 5.429 
5952 1 33.9312 25.7877 4.07175 
1953 1 38.003 24.4305 2.7145 
3853 1 40.7175 24.4305 5.429 
5953 1 39.3603 25.7877 4.07175 
1954 1 43.432 24.4305 2.7145 
3854 1 46.1465 24.4305 5.429 
5954 1 44.7893 25.7877 4.07175 
1955 1 48.861 24.4305 2.7145 
5955 1 50.2182 25.7877 4.07175 
3855 1 51.5755 24.4305 5.429 
810 1 0 27.145 5.429 
809 1 5.429 27.145 5.429 
2910 1 2.7145 27.145 2.7145 
6910 1 4.07175 28.5023 4.07175 
2909 1 8.1435 27.145 2.7145 
808 1 10.858 27.145 5.429 
6909 1 9.50075 28.5023 4.07175 
2908 1 13.5725 27.145 2.7145 
807 1 16.287 27.145 5.429 
6908 1 14.9298 28.5023 4.07175 
2907 1 19.0015 27.145 2.7145 
6907 1 20.3588 28.5023 4.07175 
806 1 21.716 27.145 5.429 
2906 1 24.4305 27.145 2.7145 
6906 1 25.7877 28.5023 4.07175 
801 1 27.145 27.145 5.429 
802 1 32.574 27.145 5.429 
2901 1 29.8595 27.145 2.7145 
6901 1 31.2168 28.5023 4.07175 
2902 1 35.2885 27.145 2.7145 
803 1 38.003 27.145 5.429 
6902 1 36.6457 28.5023 4.07175 
2903 1 40.7175 27.145 2.7145 
804 1 43.432 27.145 5.429 
6903 1 42.0748 28.5023 4.07175 
2904 1 46.1465 27.145 2.7145 
6904 1 47.5037 28.5023 4.07175 
805 1 48.861 27.145 5.429 
2905 1 51.5755 27.145 2.7145 
6905 1 52.9327 28.5023 4.07175 
820 1 0 32.574 5.429 
1910 1 0 29.8595 2.7145 
5910 1 1.35725 31.2168 4.07175 
819 1 5.429 32.574 5.429 
1909 1 5.429 29.8595 2.7145 
2920 1 2.7145 32.574 2.7145 
3810 1 2.7145 29.8595 5.429 
2919 1 8.1435 32.574 2.7145 
3809 1 8.1435 29.8595 5.429 
5909 1 6.78625 31.2168 4.07175 
818 1 10.858 32.574 5.429 
1908 1 10.858 29.8595 2.7145 
2918 1 13.5725 32.574 2.7145 
3808 1 13.5725 29.8595 5.429 
5908 1 12.2152 31.2168 4.07175 
817 1 16.287 32.574 5.429 
1907 1 16.287 29.8595 2.7145 
2917 1 19.0015 32.574 2.7145 
3807 1 19.0015 29.8595 5.429 
5907 1 17.6442 31.2168 4.07175 
816 1 21.716 32.574 5.429 
1906 1 21.716 29.8595 2.7145 
5906 1 23.0733 31.2168 4.07175 
2916 1 24.4305 32.574 2.7145 
3806 1 24.4305 29.8595 5.429 
811 1 27.145 32.574 5.429 
1901 1 27.145 29.8595 2.7145 
5901 1 28.5023 31.2168 4.07175 
812 1 32.574 32.574 5.429 
1902 1 32.574 29.8595 2.7145 
2911 1 29.8595 32.574 2.7145 
3801 1 29.8595 29.8595 5.429 
2912 1 35.2885 32.574 2.7145 
3802 1 35.2885 29.8595 5.429 
5902 1 33.9312 31.2168 4.07175 
813 1 38.003 32.574 5.429 
1903 1 38.003 29.8595 2.7145 
2913 1 40.7175 32.574 2.7145 
3803 1 40.7175 29.8595 5.429 
5903 1 39.3603 31.2168 4.07175 
814 1 43.432 32.574 5.429 
1904 1 43.432 29.8595 2.7145 
2914 1 46.1465 32.574 2.7145 
3804 1 46.1465 29.8595 5.429 
5904 1 44.7893 31.2168 4.07175 
815 1 48.861 32.574 5.429 
1905 1 48.861 29.8595 2.7145 
5905 1 50.2182 31.2168 4.07175 
2915 1 51.5755 32.574 2.7145 
3805 1 51.5755 29.8595 5.429 
1920 1 0 35.2885 2.7145 
1919 1 5.429 35.2885 2.7145 
3820 1 2.7145 35.2885 5.429 
6920 1 4.07175 33.9312 4.07175 
3819 1 8.1435 35.2885 5.429 
1918 1 10.858 35.2885 2.7145 
6919 1 9.50075 33.9312 4.07175 
3818 1 13.5725 35.2885 5.429 
1917 1 16.287 35.2885 2.7145 
6918 1 14.9298 33.9312 4.07175 
3817 1 19.0015 35.2885 5.429 
6917 1 20.3588 33.9312 4.07175 
1916 1 21.716 35.2885 2.7145 
3816 1 24.4305 35.2885 5.429 
6916 1 25.7877 33.9312 4.07175 
1911 1 27.145 35.2885 2.7145 
1912 1 32.574 35.2885 2.7145 
3811 1 29.8595 35.2885 5.429 
6911 1 31.2168 33.9312 4.07175 
3812 1 35.2885 35.2885 5.429 
1913 1 38.003 35.2885 2.7145 
6912 1 36.6457 33.9312 4.07175 
3813 1 40.7175 35.2885 5.429 
1914 1 43.432 35.2885 2.7145 
6913 1 42.0748 33.9312 4.07175 
3814 1 46.1465 35.2885 5.429 
6914 1 47.5037 33.9312 4.07175 
1915 1 48.861 35.2885 2.7145 
3815 1 51.5755 35.2885 5.429 
6915 1 52.9327 33.9312 4.07175 
830 1 0 38.003 5.429 
5920 1 1.35725 36.6457 4.07175 
829 1 5.429 38.003 5.429 
2930 1 2.7145 38.003 2.7145 
2929 1 8.1435 38.003 2.7145 
5919 1 6.78625 36.6457 4.07175 
828 1 10.858 38.003 5.429 
2928 1 13.5725 38.003 2.7145 
5918 1 12.2152 36.6457 4.07175 
827 1 16.287 38.003 5.429 
2927 1 19.0015 38.003 2.7145 
5917 1 17.6442 36.6457 4.07175 
826 1 21.716 38.003 5.429 
5916 1 23.0733 36.6457 4.07175 
2926 1 24.4305 38.003 2.7145 
821 1 27.145 38.003 5.429 
5911 1 28.5023 36.6457 4.07175 
822 1 32.574 38.003 5.429 
2921 1 29.8595 38.003 2.7145 
2922 1 35.2885 38.003 2.7145 
5912 1 33.9312 36.6457 4.07175 
823 1 38.003 38.003 5.429 
2923 1 40.7175 38.003 2.7145 
5913 1 39.3603 36.6457 4.07175 
824 1 43.432 38.003 5.429 
2924 1 46.1465 38.003 2.7145 
5914 1 44.7893 36.6457 4.07175 
825 1 48.861 38.003 5.429 
5915 1 50.2182 36.6457 4.07175 
2925 1 51.5755 38.003 2.7145 
1930 1 0 40.7175 2.7145 
1929 1 5.429 40.7175 2.7145 
3830 1 2.7145 40.7175 5.429 
6930 1 4.07175 39.3603 4.07175 
3829 1 8.1435 40.7175 5.429 
1928 1 10.858 40.7175 2.7145 
6929 1 9.50075 39.3603 4.07175 
3828 1 13.5725 40.7175 5.429 
1927 1 16.287 40.7175 2.7145 
6928 1 14.9298 39.3603 4.07175 
3827 1 19.0015 40.7175 5.429 
6927 1 20.3588 39.3603 4.07175 
1926 1 21.716 40.7175 2.7145 
3826 1 24.4305 40.7175 5.429 
6926 1 25.7877 39.3603 4.07175 
1921 1 27.145 40.7175 2.7145 
1922 1 32.574 40.7175 2.7145 
3821 1 29.8595 40.7175 5.429 
6921 1 31.2168 39.3603 4.07175 
3822 1 35.2885 40.7175 5.429 
1923 1 38.003 40.7175 2.7145 
6922 1 36.6457 39.3603 4.07175 
3823 1 40.7175 40.7175 5.429 
1924 1 43.432 40.7175 2.7145 
6923 1 42.0748 39.3603 4.07175 
3824 1 46.1465 40.7175 5.429 
6924 1 47.5037 39.3603 4.07175 
1925 1 48.861 40.7175 2.7145 
3825 1 51.5755 40.7175 5.429 
6925 1 52.9327 39.3603 4.07175 
840 1 0 43.432 5.429 
5930 1 1.35725 42.0748 4.07175 
839 1 5.429 43.432 5.429 
2940 1 2.7145 43.432 2.7145 
2939 1 8.1435 43.432 2.7145 
5929 1 6.78625 42.0748 4.07175 
838 1 10.858 43.432 5.429 
2938 1 13.5725 43.432 2.7145 
5928 1 12.2152 42.0748 4.07175 
837 1 16.287 43.432 5.429 
2937 1 19.0015 43.432 2.7145 
5927 1 17.6442 42.0748 4.07175 
836 1 21.716 43.432 5.429 
5926 1 23.0733 42.0748 4.07175 
2936 1 24.4305 43.432 2.7145 
831 1 27.145 43.432 5.429 
5921 1 28.5023 42.0748 4.07175 
832 1 32.574 43.432 5.429 
2931 1 29.8595 43.432 2.7145 
2932 1 35.2885 43.432 2.7145 
5922 1 33.9312 42.0748 4.07175 
833 1 38.003 43.432 5.429 
2933 1 40.7175 43.432 2.7145 
5923 1 39.3603 42.0748 4.07175 
834 1 43.432 43.432 5.429 
2934 1 46.1465 43.432 2.7145 
5924 1 44.7893 42.0748 4.07175 
835 1 48.861 43.432 5.429 
5925 1 50.2182 42.0748 4.07175 
2935 1 51.5755 43.432 2.7145 
1940 1 0 46.1465 2.7145 
5940 1 1.35725 47.5037 4.07175 
1939 1 5.429 46.1465 2.7145 
3840 1 2.7145 46.1465 5.429 
6940 1 4.07175 44.7893 4.07175 
3839 1 8.1435 46.1465 5.429 
5939 1 6.78625 47.5037 4.07175 
1938 1 10.858 46.1465 2.7145 
6939 1 9.50075 44.7893 4.07175 
3838 1 13.5725 46.1465 5.429 
5938 1 12.2152 47.5037 4.07175 
1937 1 16.287 46.1465 2.7145 
6938 1 14.9298 44.7893 4.07175 
3837 1 19.0015 46.1465 5.429 
5937 1 17.6442 47.5037 4.07175 
6937 1 20.3588 44.7893 4.07175 
1936 1 21.716 46.1465 2.7145 
5936 1 23.0733 47.5037 4.07175 
3836 1 24.4305 46.1465 5.429 
6936 1 25.7877 44.7893 4.07175 
1931 1 27.145 46.1465 2.7145 
5931 1 28.5023 47.5037 4.07175 
1932 1 32.574 46.1465 2.7145 
3831 1 29.8595 46.1465 5.429 
6931 1 31.2168 44.7893 4.07175 
3832 1 35.2885 46.1465 5.429 
5932 1 33.9312 47.5037 4.07175 
1933 1 38.003 46.1465 2.7145 
6932 1 36.6457 44.7893 4.07175 
3833 1 40.7175 46.1465 5.429 
5933 1 39.3603 47.5037 4.07175 
1934 1 43.432 46.1465 2.7145 
6933 1 42.0748 44.7893 4.07175 
3834 1 46.1465 46.1465 5.429 
5934 1 44.7893 47.5037 4.07175 
6934 1 47.5037 44.7893 4.07175 
1935 1 48.861 46.1465 2.7145 
5935 1 50.2182 47.5037 4.07175 
3835 1 51.5755 46.1465 5.429 
6935 1 52.9327 44.7893 4.07175 
850 1 0 48.861 5.429 
849 1 5.429 48.861 5.429 
2950 1 2.7145 48.861 2.7145 
6950 1 4.07175 50.2182 4.07175 
2949 1 8.1435 48.861 2.7145 
848 1 10.858 48.861 5.429 
6949 1 9.50075 50.2182 4.07175 
2948 1 13.5725 48.861 2.7145 
847 1 16.287 48.861 5.429 
6948 1 14.9298 50.2182 4.07175 
2947 1 19.0015 48.861 2.7145 
6947 1 20.3588 50.2182 4.07175 
846 1 21.716 48.861 5.429 
2946 1 24.4305 48.861 2.7145 
6946 1 25.7877 50.2182 4.07175 
841 1 27.145 48.861 5.429 
842 1 32.574 48.861 5.429 
2941 1 29.8595 48.861 2.7145 
6941 1 31.2168 50.2182 4.07175 
2942 1 35.2885 48.861 2.7145 
843 1 38.003 48.861 5.429 
6942 1 36.6457 50.2182 4.07175 
2943 1 40.7175 48.861 2.7145 
844 1 43.432 48.861 5.429 
6943 1 42.0748 50.2182 4.07175 
2944 1 46.1465 48.861 2.7145 
6944 1 47.5037 50.2182 4.07175 
845 1 48.861 48.861 5.429 
2945 1 51.5755 48.861 2.7145 
6945 1 52.9327 50.2182 4.07175 
1950 1 0 51.5755 2.7145 
5950 1 1.35725 52.9327 4.07175 
1949 1 5.429 51.5755 2.7145 
3850 1 2.7145 51.5755 5.429 
3849 1 8.1435 51.5755 5.429 
5949 1 6.78625 52.9327 4.07175 
1948 1 10.858 51.5755 2.7145 
3848 1 13.5725 51.5755 5.429 
5948 1 12.2152 52.9327 4.07175 
1947 1 16.287 51.5755 2.7145 
3847 1 19.0015 51.5755 5.429 
5947 1 17.6442 52.9327 4.07175 
1946 1 21.716 51.5755 2.7145 
5946 1 23.0733 52.9327 4.07175 
3846 1 24.4305 51.5755 5.429 
1941 1 27.145 51.5755 2.7145 
5941 1 28.5023 52.9327 4.07175 
1942 1 32.574 51.5755 2.7145 
3841 1 29.8595 51.5755 5.429 
3842 1 35.2885 51.5755 5.429 
5942 1 33.9312 52.9327 4.07175 
1943 1 38.003 51.5755 2.7145 
3843 1 40.7175 51.5755 5.429 
5943 1 39.3603 52.9327 4.07175 
1944 1 43.432 51.5755 2.7145 
3844 1 46.1465 51.5755 5.429 
5944 1 44.7893 52.9327 4.07175 
1945 1 48.861 51.5755 2.7145 
5945 1 50.2182 52.9327 4.07175 
3845 1 51.5755 51.5755 5.429 
4900 1 1.35725 1.35725 6.78625 
2900 1 2.7145 0 8.1435 
2899 1 8.1435 0 8.1435 
4899 1 6.78625 1.35725 6.78625 
2898 1 13.5725 0 8.1435 
4898 1 12.2152 1.35725 6.78625 
2897 1 19.0015 0 8.1435 
4897 1 17.6442 1.35725 6.78625 
4896 1 23.0733 1.35725 6.78625 
2896 1 24.4305 0 8.1435 
4891 1 28.5023 1.35725 6.78625 
2891 1 29.8595 0 8.1435 
2892 1 35.2885 0 8.1435 
4892 1 33.9312 1.35725 6.78625 
2893 1 40.7175 0 8.1435 
4893 1 39.3603 1.35725 6.78625 
2894 1 46.1465 0 8.1435 
4894 1 44.7893 1.35725 6.78625 
4895 1 50.2182 1.35725 6.78625 
2895 1 51.5755 0 8.1435 
1900 1 0 2.7145 8.1435 
1899 1 5.429 2.7145 8.1435 
2890 1 2.7145 5.429 8.1435 
7900 1 4.07175 4.07175 6.78625 
2889 1 8.1435 5.429 8.1435 
1898 1 10.858 2.7145 8.1435 
7899 1 9.50075 4.07175 6.78625 
2888 1 13.5725 5.429 8.1435 
1897 1 16.287 2.7145 8.1435 
7898 1 14.9298 4.07175 6.78625 
2887 1 19.0015 5.429 8.1435 
7897 1 20.3588 4.07175 6.78625 
1896 1 21.716 2.7145 8.1435 
2886 1 24.4305 5.429 8.1435 